# vtk DataFile Version 5.1
vtk output
ASCII
DATASET UNSTRUCTURED_GRID
POINTS 494 float
0 0 0 0.714286 0 0 1.42857 0 0 
2.14286 0 0 2.85714 0 0 3.57143 0 0 
4.28571 0 0 5 0 0 -0.357143 0.61859 0 
-0.714286 1.23718 0 -1.07143 1.85577 0 -1.42857 2.47436 0 
-1.78571 3.09295 0 -2.14286 3.71154 0 -2.5 4.33013 0 
-0.357143 -0.61859 0 -0.714286 -1.23718 0 -1.07143 -1.85577 0 
-1.42857 -2.47436 0 -1.78571 -3.09295 0 -2.14286 -3.71154 0 
-2.5 -4.33013 0 0 0 0.4 0.714286 0 0.4 
1.42857 0 0.4 2.14286 0 0.4 2.85714 0 0.4 
3.57143 0 0.4 4.28571 0 0.4 5 0 0.4 
-0.357143 0.61859 0.4 -0.714286 1.23718 0.4 -1.07143 1.85577 0.4 
-1.42857 2.47436 0.4 -1.78571 3.09295 0.4 -2.14286 3.71154 0.4 
-2.5 4.33013 0.4 -0.357143 -0.61859 0.4 -0.714286 -1.23718 0.4 
-1.07143 -1.85577 0.4 -1.42857 -2.47436 0.4 -1.78571 -3.09295 0.4 
-2.14286 -3.71154 0.4 -2.5 -4.33013 0.4 0 0 0.8 
0.714286 0 0.8 1.42857 0 0.8 2.14286 0 0.8 
2.85714 0 0.8 3.57143 0 0.8 4.28571 0 0.8 
5 0 0.8 -0.357143 0.61859 0.8 -0.714286 1.23718 0.8 
-1.07143 1.85577 0.8 -1.42857 2.47436 0.8 -1.78571 3.09295 0.8 
-2.14286 3.71154 0.8 -2.5 4.33013 0.8 -0.357143 -0.61859 0.8 
-0.714286 -1.23718 0.8 -1.07143 -1.85577 0.8 -1.42857 -2.47436 0.8 
-1.78571 -3.09295 0.8 -2.14286 -3.71154 0.8 -2.5 -4.33013 0.8 
0 0 1.2 0.714286 0 1.2 1.42857 0 1.2 
2.14286 0 1.2 2.85714 0 1.2 3.57143 0 1.2 
4.28571 0 1.2 5 0 1.2 -0.357143 0.61859 1.2 
-0.714286 1.23718 1.2 -1.07143 1.85577 1.2 -1.42857 2.47436 1.2 
-1.78571 3.09295 1.2 -2.14286 3.71154 1.2 -2.5 4.33013 1.2 
-0.357143 -0.61859 1.2 -0.714286 -1.23718 1.2 -1.07143 -1.85577 1.2 
-1.42857 -2.47436 1.2 -1.78571 -3.09295 1.2 -2.14286 -3.71154 1.2 
-2.5 -4.33013 1.2 0 0 1.6 0.714286 0 1.6 
1.42857 0 1.6 2.14286 0 1.6 2.85714 0 1.6 
3.57143 0 1.6 4.28571 0 1.6 5 0 1.6 
-0.357143 0.61859 1.6 -0.714286 1.23718 1.6 -1.07143 1.85577 1.6 
-1.42857 2.47436 1.6 -1.78571 3.09295 1.6 -2.14286 3.71154 1.6 
-2.5 4.33013 1.6 -0.357143 -0.61859 1.6 -0.714286 -1.23718 1.6 
-1.07143 -1.85577 1.6 -1.42857 -2.47436 1.6 -1.78571 -3.09295 1.6 
-2.14286 -3.71154 1.6 -2.5 -4.33013 1.6 0 0 2 
0.714286 0 2 1.42857 0 2 2.14286 0 2 
2.85714 0 2 3.57143 0 2 4.28571 0 2 
5 0 2 -0.357143 0.61859 2 -0.714286 1.23718 2 
-1.07143 1.85577 2 -1.42857 2.47436 2 -1.78571 3.09295 2 
-2.14286 3.71154 2 -2.5 4.33013 2 -0.357143 -0.61859 2 
-0.714286 -1.23718 2 -1.07143 -1.85577 2 -1.42857 -2.47436 2 
-1.78571 -3.09295 2 -2.14286 -3.71154 2 -2.5 -4.33013 2 
0.357143 0 0 1.07143 0 0 1.78571 0 0 
2.5 0 0 3.21429 0 0 3.92857 0 0 
4.64286 0 0 -0.178571 0.309295 0 -0.535714 0.927884 0 
-0.892857 1.54647 0 -1.25 2.16506 0 -1.60714 2.78365 0 
-1.96429 3.40224 0 -2.32143 4.02083 0 -0.178571 -0.309295 0 
-0.535714 -0.927884 0 -0.892857 -1.54647 0 -1.25 -2.16506 0 
-1.60714 -2.78365 0 -1.96429 -3.40224 0 -2.32143 -4.02083 0 
0.357143 0 0.4 1.07143 0 0.4 1.78571 0 0.4 
2.5 0 0.4 3.21429 0 0.4 3.92857 0 0.4 
4.64286 0 0.4 -0.178571 0.309295 0.4 -0.535714 0.927884 0.4 
-0.892857 1.54647 0.4 -1.25 2.16506 0.4 -1.60714 2.78365 0.4 
-1.96429 3.40224 0.4 -2.32143 4.02083 0.4 -0.178571 -0.309295 0.4 
-0.535714 -0.927884 0.4 -0.892857 -1.54647 0.4 -1.25 -2.16506 0.4 
-1.60714 -2.78365 0.4 -1.96429 -3.40224 0.4 -2.32143 -4.02083 0.4 
0.357143 0 0.8 1.07143 0 0.8 1.78571 0 0.8 
2.5 0 0.8 3.21429 0 0.8 3.92857 0 0.8 
4.64286 0 0.8 -0.178571 0.309295 0.8 -0.535714 0.927884 0.8 
-0.892857 1.54647 0.8 -1.25 2.16506 0.8 -1.60714 2.78365 0.8 
-1.96429 3.40224 0.8 -2.32143 4.02083 0.8 -0.178571 -0.309295 0.8 
-0.535714 -0.927884 0.8 -0.892857 -1.54647 0.8 -1.25 -2.16506 0.8 
-1.60714 -2.78365 0.8 -1.96429 -3.40224 0.8 -2.32143 -4.02083 0.8 
0.357143 0 1.2 1.07143 0 1.2 1.78571 0 1.2 
2.5 0 1.2 3.21429 0 1.2 3.92857 0 1.2 
4.64286 0 1.2 -0.178571 0.309295 1.2 -0.535714 0.927884 1.2 
-0.892857 1.54647 1.2 -1.25 2.16506 1.2 -1.60714 2.78365 1.2 
-1.96429 3.40224 1.2 -2.32143 4.02083 1.2 -0.178571 -0.309295 1.2 
-0.535714 -0.927884 1.2 -0.892857 -1.54647 1.2 -1.25 -2.16506 1.2 
-1.60714 -2.78365 1.2 -1.96429 -3.40224 1.2 -2.32143 -4.02083 1.2 
0.357143 0 1.6 1.07143 0 1.6 1.78571 0 1.6 
2.5 0 1.6 3.21429 0 1.6 3.92857 0 1.6 
4.64286 0 1.6 -0.178571 0.309295 1.6 -0.535714 0.927884 1.6 
-0.892857 1.54647 1.6 -1.25 2.16506 1.6 -1.60714 2.78365 1.6 
-1.96429 3.40224 1.6 -2.32143 4.02083 1.6 -0.178571 -0.309295 1.6 
-0.535714 -0.927884 1.6 -0.892857 -1.54647 1.6 -1.25 -2.16506 1.6 
-1.60714 -2.78365 1.6 -1.96429 -3.40224 1.6 -2.32143 -4.02083 1.6 
0.357143 0 2 1.07143 0 2 1.78571 0 2 
2.5 0 2 3.21429 0 2 3.92857 0 2 
4.64286 0 2 -0.178571 0.309295 2 -0.535714 0.927884 2 
-0.892857 1.54647 2 -1.25 2.16506 2 -1.60714 2.78365 2 
-1.96429 3.40224 2 -2.32143 4.02083 2 -0.178571 -0.309295 2 
-0.535714 -0.927884 2 -0.892857 -1.54647 2 -1.25 -2.16506 2 
-1.60714 -2.78365 2 -1.96429 -3.40224 2 -2.32143 -4.02083 2 
0.357143 0.61859 0 0.714286 1.23718 0 1.07143 1.85577 0 
1.42857 2.47436 0 1.78571 3.09295 0 2.14286 3.71154 0 
2.5 4.33013 0 -0.714286 8.74748e-17 0 -1.42857 1.7495e-16 0 
-2.14286 2.62424e-16 0 -2.85714 3.49899e-16 0 -3.57143 4.37374e-16 0 
-4.28571 5.24849e-16 0 -5 6.12323e-16 0 0.357143 -0.61859 0 
0.714286 -1.23718 0 1.07143 -1.85577 0 1.42857 -2.47436 0 
1.78571 -3.09295 0 2.14286 -3.71154 0 2.5 -4.33013 0 
0.357143 0.61859 0.4 0.714286 1.23718 0.4 1.07143 1.85577 0.4 
1.42857 2.47436 0.4 1.78571 3.09295 0.4 2.14286 3.71154 0.4 
2.5 4.33013 0.4 -0.714286 8.74748e-17 0.4 -1.42857 1.7495e-16 0.4 
-2.14286 2.62424e-16 0.4 -2.85714 3.49899e-16 0.4 -3.57143 4.37374e-16 0.4 
-4.28571 5.24849e-16 0.4 -5 6.12323e-16 0.4 0.357143 -0.61859 0.4 
0.714286 -1.23718 0.4 1.07143 -1.85577 0.4 1.42857 -2.47436 0.4 
1.78571 -3.09295 0.4 2.14286 -3.71154 0.4 2.5 -4.33013 0.4 
0.357143 0.61859 0.8 0.714286 1.23718 0.8 1.07143 1.85577 0.8 
1.42857 2.47436 0.8 1.78571 3.09295 0.8 2.14286 3.71154 0.8 
2.5 4.33013 0.8 -0.714286 8.74748e-17 0.8 -1.42857 1.7495e-16 0.8 
-2.14286 2.62424e-16 0.8 -2.85714 3.49899e-16 0.8 -3.57143 4.37374e-16 0.8 
-4.28571 5.24849e-16 0.8 -5 6.12323e-16 0.8 0.357143 -0.61859 0.8 
0.714286 -1.23718 0.8 1.07143 -1.85577 0.8 1.42857 -2.47436 0.8 
1.78571 -3.09295 0.8 2.14286 -3.71154 0.8 2.5 -4.33013 0.8 
0.357143 0.61859 1.2 0.714286 1.23718 1.2 1.07143 1.85577 1.2 
1.42857 2.47436 1.2 1.78571 3.09295 1.2 2.14286 3.71154 1.2 
2.5 4.33013 1.2 -0.714286 8.74748e-17 1.2 -1.42857 1.7495e-16 1.2 
-2.14286 2.62424e-16 1.2 -2.85714 3.49899e-16 1.2 -3.57143 4.37374e-16 1.2 
-4.28571 5.24849e-16 1.2 -5 6.12323e-16 1.2 0.357143 -0.61859 1.2 
0.714286 -1.23718 1.2 1.07143 -1.85577 1.2 1.42857 -2.47436 1.2 
1.78571 -3.09295 1.2 2.14286 -3.71154 1.2 2.5 -4.33013 1.2 
0.357143 0.61859 1.6 0.714286 1.23718 1.6 1.07143 1.85577 1.6 
1.42857 2.47436 1.6 1.78571 3.09295 1.6 2.14286 3.71154 1.6 
2.5 4.33013 1.6 -0.714286 8.74748e-17 1.6 -1.42857 1.7495e-16 1.6 
-2.14286 2.62424e-16 1.6 -2.85714 3.49899e-16 1.6 -3.57143 4.37374e-16 1.6 
-4.28571 5.24849e-16 1.6 -5 6.12323e-16 1.6 0.357143 -0.61859 1.6 
0.714286 -1.23718 1.6 1.07143 -1.85577 1.6 1.42857 -2.47436 1.6 
1.78571 -3.09295 1.6 2.14286 -3.71154 1.6 2.5 -4.33013 1.6 
0.357143 0.61859 2 0.714286 1.23718 2 1.07143 1.85577 2 
1.42857 2.47436 2 1.78571 3.09295 2 2.14286 3.71154 2 
2.5 4.33013 2 -0.714286 8.74748e-17 2 -1.42857 1.7495e-16 2 
-2.14286 2.62424e-16 2 -2.85714 3.49899e-16 2 -3.57143 4.37374e-16 2 
-4.28571 5.24849e-16 2 -5 6.12323e-16 2 0.357143 -0.61859 2 
0.714286 -1.23718 2 1.07143 -1.85577 2 1.42857 -2.47436 2 
1.78571 -3.09295 2 2.14286 -3.71154 2 2.5 -4.33013 2 
0 0 0.2 0.714286 0 0.2 1.42857 0 0.2 
2.14286 0 0.2 2.85714 0 0.2 3.57143 0 0.2 
4.28571 0 0.2 5 0 0.2 -0.357143 0.61859 0.2 
-0.714286 1.23718 0.2 -1.07143 1.85577 0.2 -1.42857 2.47436 0.2 
-1.78571 3.09295 0.2 -2.14286 3.71154 0.2 -2.5 4.33013 0.2 
-0.357143 -0.61859 0.2 -0.714286 -1.23718 0.2 -1.07143 -1.85577 0.2 
-1.42857 -2.47436 0.2 -1.78571 -3.09295 0.2 -2.14286 -3.71154 0.2 
-2.5 -4.33013 0.2 0 0 0.6 0.714286 0 0.6 
1.42857 0 0.6 2.14286 0 0.6 2.85714 0 0.6 
3.57143 0 0.6 4.28571 0 0.6 5 0 0.6 
-0.357143 0.61859 0.6 -0.714286 1.23718 0.6 -1.07143 1.85577 0.6 
-1.42857 2.47436 0.6 -1.78571 3.09295 0.6 -2.14286 3.71154 0.6 
-2.5 4.33013 0.6 -0.357143 -0.61859 0.6 -0.714286 -1.23718 0.6 
-1.07143 -1.85577 0.6 -1.42857 -2.47436 0.6 -1.78571 -3.09295 0.6 
-2.14286 -3.71154 0.6 -2.5 -4.33013 0.6 0 0 1 
0.714286 0 1 1.42857 0 1 2.14286 0 1 
2.85714 0 1 3.57143 0 1 4.28571 0 1 
5 0 1 -0.357143 0.61859 1 -0.714286 1.23718 1 
-1.07143 1.85577 1 -1.42857 2.47436 1 -1.78571 3.09295 1 
-2.14286 3.71154 1 -2.5 4.33013 1 -0.357143 -0.61859 1 
-0.714286 -1.23718 1 -1.07143 -1.85577 1 -1.42857 -2.47436 1 
-1.78571 -3.09295 1 -2.14286 -3.71154 1 -2.5 -4.33013 1 
0 0 1.4 0.714286 0 1.4 1.42857 0 1.4 
2.14286 0 1.4 2.85714 0 1.4 3.57143 0 1.4 
4.28571 0 1.4 5 0 1.4 -0.357143 0.61859 1.4 
-0.714286 1.23718 1.4 -1.07143 1.85577 1.4 -1.42857 2.47436 1.4 
-1.78571 3.09295 1.4 -2.14286 3.71154 1.4 -2.5 4.33013 1.4 
-0.357143 -0.61859 1.4 -0.714286 -1.23718 1.4 -1.07143 -1.85577 1.4 
-1.42857 -2.47436 1.4 -1.78571 -3.09295 1.4 -2.14286 -3.71154 1.4 
-2.5 -4.33013 1.4 0 0 1.8 0.714286 0 1.8 
1.42857 0 1.8 2.14286 0 1.8 2.85714 0 1.8 
3.57143 0 1.8 4.28571 0 1.8 5 0 1.8 
-0.357143 0.61859 1.8 -0.714286 1.23718 1.8 -1.07143 1.85577 1.8 
-1.42857 2.47436 1.8 -1.78571 3.09295 1.8 -2.14286 3.71154 1.8 
-2.5 4.33013 1.8 -0.357143 -0.61859 1.8 -0.714286 -1.23718 1.8 
-1.07143 -1.85577 1.8 -1.42857 -2.47436 1.8 -1.78571 -3.09295 1.8 
-2.14286 -3.71154 1.8 -2.5 -4.33013 1.8 
CELLS 106 2100
OFFSETS vtktypeint64
0 20 40 60 80 100 120 140 160 
180 200 220 240 260 280 300 320 340 
360 380 400 420 440 460 480 500 520 
540 560 580 600 620 640 660 680 700 
720 740 760 780 800 820 840 860 880 
900 920 940 960 980 1000 1020 1040 1060 
1080 1100 1120 1140 1160 1180 1200 1220 1240 
1260 1280 1300 1320 1340 1360 1380 1400 1420 
1440 1460 1480 1500 1520 1540 1560 1580 1600 
1620 1640 1660 1680 1700 1720 1740 1760 1780 
1800 1820 1840 1860 1880 1900 1920 1940 1960 
1980 2000 2020 2040 2060 2080 2100 
CONNECTIVITY vtktypeint64
0 1 8 0 22 23 30 22 132 
258 139 0 153 279 160 22 384 385 
392 384 1 2 9 8 23 24 31 
30 133 259 140 258 154 280 161 279 
385 386 393 392 2 3 10 9 24 
25 32 31 134 260 141 259 155 281 
162 280 386 387 394 393 3 4 11 
10 25 26 33 32 135 261 142 260 
156 282 163 281 387 388 395 394 4 
5 12 11 26 27 34 33 136 262 
143 261 157 283 164 282 388 389 396 
395 5 6 13 12 27 28 35 34 
137 263 144 262 158 284 165 283 389 
390 397 396 6 7 14 13 28 29 
36 35 138 264 145 263 159 285 166 
284 390 391 398 397 0 8 15 0 
22 30 37 22 139 265 146 0 160 
286 167 22 384 392 399 384 8 9 
16 15 30 31 38 37 140 266 147 
265 161 287 168 286 392 393 400 399 
9 10 17 16 31 32 39 38 141 
267 148 266 162 288 169 287 393 394 
401 400 10 11 18 17 32 33 40 
39 142 268 149 267 163 289 170 288 
394 395 402 401 11 12 19 18 33 
34 41 40 143 269 150 268 164 290 
171 289 395 396 403 402 12 13 20 
19 34 35 42 41 144 270 151 269 
165 291 172 290 396 397 404 403 13 
14 21 20 35 36 43 42 145 271 
152 270 166 292 173 291 397 398 405 
404 0 15 1 0 22 37 23 22 
146 272 132 0 167 293 153 22 384 
399 385 384 15 16 2 1 37 38 
24 23 147 273 133 272 168 294 154 
293 399 400 386 385 16 17 3 2 
38 39 25 24 148 274 134 273 169 
295 155 294 400 401 387 386 17 18 
4 3 39 40 26 25 149 275 135 
274 170 296 156 295 401 402 388 387 
18 19 5 4 40 41 27 26 150 
276 136 275 171 297 157 296 402 403 
389 388 19 20 6 5 41 42 28 
27 151 277 137 276 172 298 158 297 
403 404 390 389 20 21 7 6 42 
43 29 28 152 278 138 277 173 299 
159 298 404 405 391 390 22 23 30 
22 44 45 52 44 153 279 160 22 
174 300 181 44 406 407 414 406 23 
24 31 30 45 46 53 52 154 280 
161 279 175 301 182 300 407 408 415 
414 24 25 32 31 46 47 54 53 
155 281 162 280 176 302 183 301 408 
409 416 415 25 26 33 32 47 48 
55 54 156 282 163 281 177 303 184 
302 409 410 417 416 26 27 34 33 
48 49 56 55 157 283 164 282 178 
304 185 303 410 411 418 417 27 28 
35 34 49 50 57 56 158 284 165 
283 179 305 186 304 411 412 419 418 
28 29 36 35 50 51 58 57 159 
285 166 284 180 306 187 305 412 413 
420 419 22 30 37 22 44 52 59 
44 160 286 167 22 181 307 188 44 
406 414 421 406 30 31 38 37 52 
53 60 59 161 287 168 286 182 308 
189 307 414 415 422 421 31 32 39 
38 53 54 61 60 162 288 169 287 
183 309 190 308 415 416 423 422 32 
33 40 39 54 55 62 61 163 289 
170 288 184 310 191 309 416 417 424 
423 33 34 41 40 55 56 63 62 
164 290 171 289 185 311 192 310 417 
418 425 424 34 35 42 41 56 57 
64 63 165 291 172 290 186 312 193 
311 418 419 426 425 35 36 43 42 
57 58 65 64 166 292 173 291 187 
313 194 312 419 420 427 426 22 37 
23 22 44 59 45 44 167 293 153 
22 188 314 174 44 406 421 407 406 
37 38 24 23 59 60 46 45 168 
294 154 293 189 315 175 314 421 422 
408 407 38 39 25 24 60 61 47 
46 169 295 155 294 190 316 176 315 
422 423 409 408 39 40 26 25 61 
62 48 47 170 296 156 295 191 317 
177 316 423 424 410 409 40 41 27 
26 62 63 49 48 171 297 157 296 
192 318 178 317 424 425 411 410 41 
42 28 27 63 64 50 49 172 298 
158 297 193 319 179 318 425 426 412 
411 42 43 29 28 64 65 51 50 
173 299 159 298 194 320 180 319 426 
427 413 412 44 45 52 44 66 67 
74 66 174 300 181 44 195 321 202 
66 428 429 436 428 45 46 53 52 
67 68 75 74 175 301 182 300 196 
322 203 321 429 430 437 436 46 47 
54 53 68 69 76 75 176 302 183 
301 197 323 204 322 430 431 438 437 
47 48 55 54 69 70 77 76 177 
303 184 302 198 324 205 323 431 432 
439 438 48 49 56 55 70 71 78 
77 178 304 185 303 199 325 206 324 
432 433 440 439 49 50 57 56 71 
72 79 78 179 305 186 304 200 326 
207 325 433 434 441 440 50 51 58 
57 72 73 80 79 180 306 187 305 
201 327 208 326 434 435 442 441 44 
52 59 44 66 74 81 66 181 307 
188 44 202 328 209 66 428 436 443 
428 52 53 60 59 74 75 82 81 
182 308 189 307 203 329 210 328 436 
437 444 443 53 54 61 60 75 76 
83 82 183 309 190 308 204 330 211 
329 437 438 445 444 54 55 62 61 
76 77 84 83 184 310 191 309 205 
331 212 330 438 439 446 445 55 56 
63 62 77 78 85 84 185 311 192 
310 206 332 213 331 439 440 447 446 
56 57 64 63 78 79 86 85 186 
312 193 311 207 333 214 332 440 441 
448 447 57 58 65 64 79 80 87 
86 187 313 194 312 208 334 215 333 
441 442 449 448 44 59 45 44 66 
81 67 66 188 314 174 44 209 335 
195 66 428 443 429 428 59 60 46 
45 81 82 68 67 189 315 175 314 
210 336 196 335 443 444 430 429 60 
61 47 46 82 83 69 68 190 316 
176 315 211 337 197 336 444 445 431 
430 61 62 48 47 83 84 70 69 
191 317 177 316 212 338 198 337 445 
446 432 431 62 63 49 48 84 85 
71 70 192 318 178 317 213 339 199 
338 446 447 433 432 63 64 50 49 
85 86 72 71 193 319 179 318 214 
340 200 339 447 448 434 433 64 65 
51 50 86 87 73 72 194 320 180 
319 215 341 201 340 448 449 435 434 
66 67 74 66 88 89 96 88 195 
321 202 66 216 342 223 88 450 451 
458 450 67 68 75 74 89 90 97 
96 196 322 203 321 217 343 224 342 
451 452 459 458 68 69 76 75 90 
91 98 97 197 323 204 322 218 344 
225 343 452 453 460 459 69 70 77 
76 91 92 99 98 198 324 205 323 
219 345 226 344 453 454 461 460 70 
71 78 77 92 93 100 99 199 325 
206 324 220 346 227 345 454 455 462 
461 71 72 79 78 93 94 101 100 
200 326 207 325 221 347 228 346 455 
456 463 462 72 73 80 79 94 95 
102 101 201 327 208 326 222 348 229 
347 456 457 464 463 66 74 81 66 
88 96 103 88 202 328 209 66 223 
349 230 88 450 458 465 450 74 75 
82 81 96 97 104 103 203 329 210 
328 224 350 231 349 458 459 466 465 
75 76 83 82 97 98 105 104 204 
330 211 329 225 351 232 350 459 460 
467 466 76 77 84 83 98 99 106 
105 205 331 212 330 226 352 233 351 
460 461 468 467 77 78 85 84 99 
100 107 106 206 332 213 331 227 353 
234 352 461 462 469 468 78 79 86 
85 100 101 108 107 207 333 214 332 
228 354 235 353 462 463 470 469 79 
80 87 86 101 102 109 108 208 334 
215 333 229 355 236 354 463 464 471 
470 66 81 67 66 88 103 89 88 
209 335 195 66 230 356 216 88 450 
465 451 450 81 82 68 67 103 104 
90 89 210 336 196 335 231 357 217 
356 465 466 452 451 82 83 69 68 
104 105 91 90 211 337 197 336 232 
358 218 357 466 467 453 452 83 84 
70 69 105 106 92 91 212 338 198 
337 233 359 219 358 467 468 454 453 
84 85 71 70 106 107 93 92 213 
339 199 338 234 360 220 359 468 469 
455 454 85 86 72 71 107 108 94 
93 214 340 200 339 235 361 221 360 
469 470 456 455 86 87 73 72 108 
109 95 94 215 341 201 340 236 362 
222 361 470 471 457 456 88 89 96 
88 110 111 118 110 216 342 223 88 
237 363 244 110 472 473 480 472 89 
90 97 96 111 112 119 118 217 343 
224 342 238 364 245 363 473 474 481 
480 90 91 98 97 112 113 120 119 
218 344 225 343 239 365 246 364 474 
475 482 481 91 92 99 98 113 114 
121 120 219 345 226 344 240 366 247 
365 475 476 483 482 92 93 100 99 
114 115 122 121 220 346 227 345 241 
367 248 366 476 477 484 483 93 94 
101 100 115 116 123 122 221 347 228 
346 242 368 249 367 477 478 485 484 
94 95 102 101 116 117 124 123 222 
348 229 347 243 369 250 368 478 479 
486 485 88 96 103 88 110 118 125 
110 223 349 230 88 244 370 251 110 
472 480 487 472 96 97 104 103 118 
119 126 125 224 350 231 349 245 371 
252 370 480 481 488 487 97 98 105 
104 119 120 127 126 225 351 232 350 
246 372 253 371 481 482 489 488 98 
99 106 105 120 121 128 127 226 352 
233 351 247 373 254 372 482 483 490 
489 99 100 107 106 121 122 129 128 
227 353 234 352 248 374 255 373 483 
484 491 490 100 101 108 107 122 123 
130 129 228 354 235 353 249 375 256 
374 484 485 492 491 101 102 109 108 
123 124 131 130 229 355 236 354 250 
376 257 375 485 486 493 492 88 103 
89 88 110 125 111 110 230 356 216 
88 251 377 237 110 472 487 473 472 
103 104 90 89 125 126 112 111 231 
357 217 356 252 378 238 377 487 488 
474 473 104 105 91 90 126 127 113 
112 232 358 218 357 253 379 239 378 
488 489 475 474 105 106 92 91 127 
128 114 113 233 359 219 358 254 380 
240 379 489 490 476 475 106 107 93 
92 128 129 115 114 234 360 220 359 
255 381 241 380 490 491 477 476 107 
108 94 93 129 130 116 115 235 361 
221 360 256 382 242 381 491 492 478 
477 108 109 95 94 130 131 117 116 
236 362 222 361 257 383 243 382 492 
493 479 478 
CELL_TYPES 105
25
25
25
25
25
25
25
25
25
25
25
25
25
25
25
25
25
25
25
25
25
25
25
25
25
25
25
25
25
25
25
25
25
25
25
25
25
25
25
25
25
25
25
25
25
25
25
25
25
25
25
25
25
25
25
25
25
25
25
25
25
25
25
25
25
25
25
25
25
25
25
25
25
25
25
25
25
25
25
25
25
25
25
25
25
25
25
25
25
25
25
25
25
25
25
25
25
25
25
25
25
25
25
25
25

CELL_DATA 105
FIELD FieldData 1
ascending_data 1 105 double
0 100 200 300 400 500 600 700 800 
900 1000 1100 1200 1300 1400 1500 1600 1700 
1800 1900 2000 2100 2200 2300 2400 2500 2600 
2700 2800 2900 3000 3100 3200 3300 3400 3500 
3600 3700 3800 3900 4000 4100 4200 4300 4400 
4500 4600 4700 4800 4900 5000 5100 5200 5300 
5400 5500 5600 5700 5800 5900 6000 6100 6200 
6300 6400 6500 6600 6700 6800 6900 7000 7100 
7200 7300 7400 7500 7600 7700 7800 7900 8000 
8100 8200 8300 8400 8500 8600 8700 8800 8900 
9000 9100 9200 9300 9400 9500 9600 9700 9800 
9900 10000 10100 10200 10300 10400 
